<?xml version="1.0" encoding="UTF-8"?>

<!-- generated on 02/11/20 15:07:51 by Eclipse SUMO GUI Version 1.4.0
<configuration xmlns:xsi="http://www.w3.org/2001/XMLSchema-instance" xsi:noNamespaceSchemaLocation="http://sumo.dlr.de/xsd/sumoConfiguration.xsd">

    <input>
        <net-file value="data/road.net.xml"/>
        <route-files value="data/road.rou.xml"/>
        <additional-files value="data/road.typ.xml"/>
    </input>

    <output>
        <tripinfo-output value="tripinfo.xml"/>
    </output>

    <time>
        <begin value="0"/>
    </time>

    <report>
        <verbose value="true"/>
        <no-step-log value="true"/>
    </report>

    <traci_server>
        <remote-port value="59548"/>
    </traci_server>

</configuration>
-->

<tripinfos xmlns:xsi="http://www.w3.org/2001/XMLSchema-instance" xsi:noNamespaceSchemaLocation="http://sumo.dlr.de/xsd/tripinfo_file.xsd">
    <tripinfo id="NorthBound_3" depart="4.00" departLane="S-0S_0" departPos="7.10" departSpeed="0.00" departDelay="0.00" arrival="53.00" arrivalLane="0N-N_0" arrivalPos="10.00" arrivalSpeed="17.67" duration="49.00" routeLength="613.10" waitingTime="0.00" waitingCount="0" stopTime="0.00" timeLoss="14.49" rerouteNo="0" devices="tripinfo_NorthBound_3" vType="typeNS" speedFactor="1.08" vaporized=""/>
    <tripinfo id="EastBound_5" depart="11.00" departLane="W-0W_0" departPos="5.10" departSpeed="0.00" departDelay="0.00" arrival="69.00" arrivalLane="0E-E_0" arrivalPos="10.00" arrivalSpeed="13.63" duration="58.00" routeLength="615.10" waitingTime="0.00" waitingCount="0" stopTime="0.00" timeLoss="13.25" rerouteNo="0" devices="tripinfo_EastBound_5" vType="typeWE" speedFactor="0.83" vaporized=""/>
    <tripinfo id="WestBound_0" depart="0.00" departLane="E-0E_0" departPos="5.10" departSpeed="0.00" departDelay="0.00" arrival="77.00" arrivalLane="0W-W_0" arrivalPos="10.00" arrivalSpeed="16.48" duration="77.00" routeLength="615.10" waitingTime="11.00" waitingCount="1" stopTime="0.00" timeLoss="40.03" rerouteNo="0" devices="tripinfo_WestBound_0" vType="typeWE" speedFactor="1.06" vaporized=""/>
    <tripinfo id="EastBound_2" depart="3.00" departLane="W-0W_0" departPos="5.10" departSpeed="0.00" departDelay="0.00" arrival="77.00" arrivalLane="0E-E_0" arrivalPos="10.00" arrivalSpeed="16.47" duration="74.00" routeLength="615.10" waitingTime="8.00" waitingCount="1" stopTime="0.00" timeLoss="36.42" rerouteNo="0" devices="tripinfo_EastBound_2" vType="typeWE" speedFactor="1.01" vaporized=""/>
    <tripinfo id="EastBound_7" depart="22.00" departLane="W-0W_0" departPos="5.10" departSpeed="0.00" departDelay="0.00" arrival="77.00" arrivalLane="0E-E_1" arrivalPos="10.00" arrivalSpeed="14.73" duration="55.00" routeLength="615.10" waitingTime="0.00" waitingCount="0" stopTime="0.00" timeLoss="12.53" rerouteNo="0" devices="tripinfo_EastBound_7" vType="typeWE" speedFactor="0.89" vaporized=""/>
    <tripinfo id="WestBound_1" depart="4.00" departLane="E-0E_0" departPos="5.10" departSpeed="0.00" departDelay="2.00" arrival="78.00" arrivalLane="0W-W_1" arrivalPos="10.00" arrivalSpeed="15.63" duration="74.00" routeLength="615.10" waitingTime="5.00" waitingCount="1" stopTime="0.00" timeLoss="33.73" rerouteNo="0" devices="tripinfo_WestBound_1" vType="typeWE" speedFactor="0.94" vaporized=""/>
    <tripinfo id="WestBound_4" depart="10.00" departLane="E-0E_0" departPos="5.10" departSpeed="0.00" departDelay="0.00" arrival="79.00" arrivalLane="0W-W_0" arrivalPos="10.00" arrivalSpeed="16.60" duration="69.00" routeLength="615.10" waitingTime="2.00" waitingCount="1" stopTime="0.00" timeLoss="31.55" rerouteNo="0" devices="tripinfo_WestBound_4" vType="typeWE" speedFactor="1.03" vaporized=""/>
    <tripinfo id="WestBound_8" depart="22.00" departLane="E-0E_0" departPos="5.10" departSpeed="0.00" departDelay="0.00" arrival="79.00" arrivalLane="0W-W_1" arrivalPos="10.00" arrivalSpeed="15.32" duration="57.00" routeLength="615.10" waitingTime="0.00" waitingCount="0" stopTime="0.00" timeLoss="17.60" rerouteNo="0" devices="tripinfo_WestBound_8" vType="typeWE" speedFactor="0.94" vaporized=""/>
    <tripinfo id="EastBound_10" depart="27.00" departLane="W-0W_0" departPos="5.10" departSpeed="0.00" departDelay="2.00" arrival="79.00" arrivalLane="0E-E_0" arrivalPos="10.00" arrivalSpeed="16.56" duration="52.00" routeLength="615.10" waitingTime="0.00" waitingCount="0" stopTime="0.00" timeLoss="14.73" rerouteNo="0" devices="tripinfo_EastBound_10" vType="typeWE" speedFactor="1.09" vaporized=""/>
    <tripinfo id="EastBound_11" depart="32.00" departLane="W-0W_0" departPos="5.10" departSpeed="0.00" departDelay="1.00" arrival="83.00" arrivalLane="0E-E_0" arrivalPos="10.00" arrivalSpeed="16.40" duration="51.00" routeLength="615.10" waitingTime="0.00" waitingCount="0" stopTime="0.00" timeLoss="13.83" rerouteNo="0" devices="tripinfo_EastBound_11" vType="typeWE" speedFactor="1.03" vaporized=""/>
    <tripinfo id="EastBound_13" depart="37.00" departLane="W-0W_0" departPos="5.10" departSpeed="0.00" departDelay="3.00" arrival="88.00" arrivalLane="0E-E_0" arrivalPos="10.00" arrivalSpeed="16.62" duration="51.00" routeLength="615.10" waitingTime="0.00" waitingCount="0" stopTime="0.00" timeLoss="13.42" rerouteNo="0" devices="tripinfo_EastBound_13" vType="typeWE" speedFactor="1.12" vaporized=""/>
    <tripinfo id="EastBound_14" depart="42.00" departLane="W-0W_0" departPos="5.10" departSpeed="0.00" departDelay="2.00" arrival="93.00" arrivalLane="0E-E_0" arrivalPos="10.00" arrivalSpeed="16.19" duration="51.00" routeLength="615.10" waitingTime="0.00" waitingCount="0" stopTime="0.00" timeLoss="13.56" rerouteNo="0" devices="tripinfo_EastBound_14" vType="typeWE" speedFactor="0.99" vaporized=""/>
    <tripinfo id="WestBound_15" depart="41.00" departLane="E-0E_0" departPos="5.10" departSpeed="0.00" departDelay="0.00" arrival="94.00" arrivalLane="0W-W_0" arrivalPos="10.00" arrivalSpeed="15.07" duration="53.00" routeLength="615.10" waitingTime="0.00" waitingCount="0" stopTime="0.00" timeLoss="12.30" rerouteNo="0" devices="tripinfo_WestBound_15" vType="typeWE" speedFactor="0.93" vaporized=""/>
    <tripinfo id="EastBound_16" depart="47.00" departLane="W-0W_0" departPos="5.10" departSpeed="0.00" departDelay="3.00" arrival="101.00" arrivalLane="0E-E_0" arrivalPos="10.00" arrivalSpeed="14.39" duration="54.00" routeLength="615.10" waitingTime="0.00" waitingCount="0" stopTime="0.00" timeLoss="11.42" rerouteNo="0" devices="tripinfo_EastBound_16" vType="typeWE" speedFactor="0.88" vaporized=""/>
    <tripinfo id="WestBound_17" depart="49.00" departLane="E-0E_0" departPos="5.10" departSpeed="0.00" departDelay="0.00" arrival="101.00" arrivalLane="0W-W_0" arrivalPos="10.00" arrivalSpeed="15.39" duration="52.00" routeLength="615.10" waitingTime="0.00" waitingCount="0" stopTime="0.00" timeLoss="12.55" rerouteNo="0" devices="tripinfo_WestBound_17" vType="typeWE" speedFactor="0.94" vaporized=""/>
    <tripinfo id="SouthBound_12" depart="31.00" departLane="N-0N_0" departPos="7.10" departSpeed="0.00" departDelay="0.00" arrival="122.00" arrivalLane="0S-S_1" arrivalPos="10.00" arrivalSpeed="17.44" duration="91.00" routeLength="613.10" waitingTime="24.00" waitingCount="1" stopTime="0.00" timeLoss="55.49" rerouteNo="0" devices="tripinfo_SouthBound_12" vType="typeNS" speedFactor="1.05" vaporized=""/>
    <tripinfo id="NorthBound_6" depart="16.00" departLane="S-0S_0" departPos="7.10" departSpeed="0.00" departDelay="0.00" arrival="123.00" arrivalLane="0N-N_0" arrivalPos="10.00" arrivalSpeed="17.04" duration="107.00" routeLength="613.10" waitingTime="40.00" waitingCount="1" stopTime="0.00" timeLoss="71.30" rerouteNo="0" devices="tripinfo_NorthBound_6" vType="typeNS" speedFactor="1.05" vaporized=""/>
    <tripinfo id="SouthBound_9" depart="23.00" departLane="N-0N_0" departPos="7.10" departSpeed="0.00" departDelay="0.00" arrival="123.00" arrivalLane="0S-S_0" arrivalPos="10.00" arrivalSpeed="14.01" duration="100.00" routeLength="613.10" waitingTime="32.00" waitingCount="1" stopTime="0.00" timeLoss="56.73" rerouteNo="0" devices="tripinfo_SouthBound_9" vType="typeNS" speedFactor="0.86" vaporized=""/>
    <tripinfo id="SouthBound_22" depart="72.00" departLane="N-0N_0" departPos="7.10" departSpeed="0.00" departDelay="0.00" arrival="125.00" arrivalLane="0S-S_1" arrivalPos="10.00" arrivalSpeed="15.88" duration="53.00" routeLength="613.10" waitingTime="0.00" waitingCount="0" stopTime="0.00" timeLoss="14.33" rerouteNo="0" devices="tripinfo_SouthBound_22" vType="typeNS" speedFactor="0.98" vaporized=""/>
    <tripinfo id="SouthBound_25" depart="85.00" departLane="N-0N_0" departPos="7.10" departSpeed="0.00" departDelay="0.00" arrival="140.00" arrivalLane="0S-S_0" arrivalPos="10.00" arrivalSpeed="14.52" duration="55.00" routeLength="613.10" waitingTime="0.00" waitingCount="0" stopTime="0.00" timeLoss="12.31" rerouteNo="0" devices="tripinfo_SouthBound_25" vType="typeNS" speedFactor="0.87" vaporized=""/>
    <tripinfo id="SouthBound_27" depart="98.00" departLane="N-0N_0" departPos="7.10" departSpeed="0.00" departDelay="0.00" arrival="150.00" arrivalLane="0S-S_0" arrivalPos="10.00" arrivalSpeed="15.78" duration="52.00" routeLength="613.10" waitingTime="0.00" waitingCount="0" stopTime="0.00" timeLoss="13.00" rerouteNo="0" devices="tripinfo_SouthBound_27" vType="typeNS" speedFactor="0.95" vaporized=""/>
    <tripinfo id="EastBound_19" depart="63.00" departLane="W-0W_0" departPos="5.10" departSpeed="0.00" departDelay="0.00" arrival="166.00" arrivalLane="0E-E_1" arrivalPos="10.00" arrivalSpeed="16.59" duration="103.00" routeLength="615.10" waitingTime="38.00" waitingCount="1" stopTime="0.00" timeLoss="65.97" rerouteNo="0" devices="tripinfo_EastBound_19" vType="typeWE" speedFactor="1.16" vaporized=""/>
    <tripinfo id="EastBound_18" depart="56.00" departLane="W-0W_0" departPos="5.10" departSpeed="0.00" departDelay="0.00" arrival="167.00" arrivalLane="0E-E_0" arrivalPos="10.00" arrivalSpeed="15.36" duration="111.00" routeLength="615.10" waitingTime="44.00" waitingCount="1" stopTime="0.00" timeLoss="70.94" rerouteNo="0" devices="tripinfo_EastBound_18" vType="typeWE" speedFactor="0.94" vaporized=""/>
    <tripinfo id="WestBound_21" depart="67.00" departLane="E-0E_0" departPos="5.10" departSpeed="0.00" departDelay="0.00" arrival="167.00" arrivalLane="0W-W_0" arrivalPos="10.00" arrivalSpeed="16.43" duration="100.00" routeLength="615.10" waitingTime="35.00" waitingCount="1" stopTime="0.00" timeLoss="62.92" rerouteNo="0" devices="tripinfo_WestBound_21" vType="typeWE" speedFactor="1.01" vaporized=""/>
    <tripinfo id="EastBound_20" depart="68.00" departLane="W-0W_0" departPos="5.10" departSpeed="0.00" departDelay="4.00" arrival="168.00" arrivalLane="0E-E_0" arrivalPos="10.00" arrivalSpeed="16.55" duration="100.00" routeLength="615.10" waitingTime="33.00" waitingCount="1" stopTime="0.00" timeLoss="63.03" rerouteNo="0" devices="tripinfo_EastBound_20" vType="typeWE" speedFactor="1.02" vaporized=""/>
    <tripinfo id="WestBound_23" depart="74.00" departLane="E-0E_0" departPos="5.10" departSpeed="0.00" departDelay="0.00" arrival="168.00" arrivalLane="0W-W_1" arrivalPos="10.00" arrivalSpeed="14.71" duration="94.00" routeLength="615.10" waitingTime="27.00" waitingCount="1" stopTime="0.00" timeLoss="52.02" rerouteNo="0" devices="tripinfo_WestBound_23" vType="typeWE" speedFactor="0.89" vaporized=""/>
    <tripinfo id="WestBound_31" depart="117.00" departLane="E-0E_0" departPos="5.10" departSpeed="0.00" departDelay="0.00" arrival="169.00" arrivalLane="0W-W_0" arrivalPos="10.00" arrivalSpeed="16.37" duration="52.00" routeLength="615.10" waitingTime="0.00" waitingCount="0" stopTime="0.00" timeLoss="14.49" rerouteNo="0" devices="tripinfo_WestBound_31" vType="typeWE" speedFactor="1.15" vaporized=""/>
    <tripinfo id="EastBound_24" depart="81.00" departLane="W-0W_0" departPos="5.10" departSpeed="0.00" departDelay="0.00" arrival="171.00" arrivalLane="0E-E_1" arrivalPos="10.00" arrivalSpeed="13.43" duration="90.00" routeLength="615.10" waitingTime="20.00" waitingCount="1" stopTime="0.00" timeLoss="44.39" rerouteNo="0" devices="tripinfo_EastBound_24" vType="typeWE" speedFactor="0.83" vaporized=""/>
    <tripinfo id="EastBound_26" depart="92.00" departLane="W-0W_0" departPos="5.10" departSpeed="0.00" departDelay="0.00" arrival="171.00" arrivalLane="0E-E_0" arrivalPos="10.00" arrivalSpeed="15.00" duration="79.00" routeLength="615.10" waitingTime="10.00" waitingCount="1" stopTime="0.00" timeLoss="38.46" rerouteNo="0" devices="tripinfo_EastBound_26" vType="typeWE" speedFactor="0.92" vaporized=""/>
    <tripinfo id="EastBound_30" depart="115.00" departLane="W-0W_0" departPos="5.10" departSpeed="0.00" departDelay="0.00" arrival="172.00" arrivalLane="0E-E_1" arrivalPos="10.00" arrivalSpeed="14.39" duration="57.00" routeLength="615.10" waitingTime="0.00" waitingCount="0" stopTime="0.00" timeLoss="19.77" rerouteNo="0" devices="tripinfo_EastBound_30" vType="typeWE" speedFactor="1.18" vaporized=""/>
    <tripinfo id="WestBound_32" depart="122.00" departLane="E-0E_0" departPos="5.10" departSpeed="0.00" departDelay="2.00" arrival="174.00" arrivalLane="0W-W_0" arrivalPos="10.00" arrivalSpeed="16.40" duration="52.00" routeLength="615.10" waitingTime="0.00" waitingCount="0" stopTime="0.00" timeLoss="14.32" rerouteNo="0" devices="tripinfo_WestBound_32" vType="typeWE" speedFactor="1.01" vaporized=""/>
    <tripinfo id="WestBound_33" depart="127.00" departLane="E-0E_0" departPos="5.10" departSpeed="0.00" departDelay="4.00" arrival="178.00" arrivalLane="0W-W_0" arrivalPos="10.00" arrivalSpeed="16.40" duration="51.00" routeLength="615.10" waitingTime="0.00" waitingCount="0" stopTime="0.00" timeLoss="13.67" rerouteNo="0" devices="tripinfo_WestBound_33" vType="typeWE" speedFactor="1.17" vaporized=""/>
    <tripinfo id="EastBound_35" depart="126.00" departLane="W-0W_0" departPos="5.10" departSpeed="0.00" departDelay="0.00" arrival="178.00" arrivalLane="0E-E_0" arrivalPos="10.00" arrivalSpeed="16.45" duration="52.00" routeLength="615.10" waitingTime="0.00" waitingCount="0" stopTime="0.00" timeLoss="14.64" rerouteNo="0" devices="tripinfo_EastBound_35" vType="typeWE" speedFactor="1.02" vaporized=""/>
    <tripinfo id="WestBound_34" depart="132.00" departLane="E-0E_0" departPos="5.10" departSpeed="0.00" departDelay="7.00" arrival="182.00" arrivalLane="0W-W_0" arrivalPos="10.00" arrivalSpeed="16.28" duration="50.00" routeLength="615.10" waitingTime="0.00" waitingCount="0" stopTime="0.00" timeLoss="12.85" rerouteNo="0" devices="tripinfo_WestBound_34" vType="typeWE" speedFactor="0.99" vaporized=""/>
    <tripinfo id="EastBound_36" depart="131.00" departLane="W-0W_0" departPos="5.10" departSpeed="0.00" departDelay="4.00" arrival="183.00" arrivalLane="0E-E_0" arrivalPos="10.00" arrivalSpeed="16.19" duration="52.00" routeLength="615.10" waitingTime="0.00" waitingCount="0" stopTime="0.00" timeLoss="13.26" rerouteNo="0" devices="tripinfo_EastBound_36" vType="typeWE" speedFactor="0.97" vaporized=""/>
    <tripinfo id="WestBound_37" depart="137.00" departLane="E-0E_0" departPos="5.10" departSpeed="0.00" departDelay="8.00" arrival="187.00" arrivalLane="0W-W_0" arrivalPos="10.00" arrivalSpeed="16.61" duration="50.00" routeLength="615.10" waitingTime="0.00" waitingCount="0" stopTime="0.00" timeLoss="12.99" rerouteNo="0" devices="tripinfo_WestBound_37" vType="typeWE" speedFactor="1.18" vaporized=""/>
    <tripinfo id="EastBound_39" depart="136.00" departLane="W-0W_0" departPos="5.10" departSpeed="0.00" departDelay="4.00" arrival="189.00" arrivalLane="0E-E_0" arrivalPos="10.00" arrivalSpeed="14.80" duration="53.00" routeLength="615.10" waitingTime="0.00" waitingCount="0" stopTime="0.00" timeLoss="11.86" rerouteNo="0" devices="tripinfo_EastBound_39" vType="typeWE" speedFactor="0.90" vaporized=""/>
    <tripinfo id="WestBound_41" depart="142.00" departLane="E-0E_0" departPos="5.10" departSpeed="0.00" departDelay="5.00" arrival="194.00" arrivalLane="0W-W_0" arrivalPos="10.00" arrivalSpeed="15.85" duration="52.00" routeLength="615.10" waitingTime="0.00" waitingCount="0" stopTime="0.00" timeLoss="12.77" rerouteNo="0" devices="tripinfo_WestBound_41" vType="typeWE" speedFactor="0.96" vaporized=""/>
    <tripinfo id="SouthBound_43" depart="149.00" departLane="N-0N_0" departPos="7.10" departSpeed="0.00" departDelay="0.00" arrival="200.00" arrivalLane="0S-S_1" arrivalPos="10.00" arrivalSpeed="17.02" duration="51.00" routeLength="613.10" waitingTime="0.00" waitingCount="0" stopTime="0.00" timeLoss="14.85" rerouteNo="0" devices="tripinfo_SouthBound_43" vType="typeNS" speedFactor="1.04" vaporized=""/>
    <tripinfo id="NorthBound_28" depart="103.00" departLane="S-0S_0" departPos="7.10" departSpeed="0.00" departDelay="0.00" arrival="211.00" arrivalLane="0N-N_0" arrivalPos="10.00" arrivalSpeed="18.59" duration="108.00" routeLength="613.10" waitingTime="42.00" waitingCount="1" stopTime="0.00" timeLoss="75.26" rerouteNo="0" devices="tripinfo_NorthBound_28" vType="typeNS" speedFactor="1.13" vaporized=""/>
    <tripinfo id="SouthBound_38" depart="129.00" departLane="N-0N_0" departPos="7.10" departSpeed="0.00" departDelay="0.00" arrival="212.00" arrivalLane="0S-S_0" arrivalPos="10.00" arrivalSpeed="18.20" duration="83.00" routeLength="613.10" waitingTime="15.00" waitingCount="1" stopTime="0.00" timeLoss="48.66" rerouteNo="0" devices="tripinfo_SouthBound_38" vType="typeNS" speedFactor="1.10" vaporized=""/>
    <tripinfo id="NorthBound_29" depart="109.00" departLane="S-0S_0" departPos="7.10" departSpeed="0.00" departDelay="3.00" arrival="213.00" arrivalLane="0N-N_1" arrivalPos="10.00" arrivalSpeed="15.51" duration="104.00" routeLength="613.10" waitingTime="36.00" waitingCount="1" stopTime="0.00" timeLoss="63.83" rerouteNo="0" devices="tripinfo_NorthBound_29" vType="typeNS" speedFactor="0.93" vaporized=""/>
    <tripinfo id="NorthBound_40" depart="135.00" departLane="S-0S_0" departPos="7.10" departSpeed="0.00" departDelay="0.00" arrival="215.00" arrivalLane="0N-N_1" arrivalPos="10.00" arrivalSpeed="17.02" duration="80.00" routeLength="613.10" waitingTime="14.00" waitingCount="1" stopTime="0.00" timeLoss="43.91" rerouteNo="0" devices="tripinfo_NorthBound_40" vType="typeNS" speedFactor="1.03" vaporized=""/>
    <tripinfo id="SouthBound_48" depart="164.00" departLane="N-0N_0" departPos="7.10" departSpeed="0.00" departDelay="0.00" arrival="219.00" arrivalLane="0S-S_0" arrivalPos="10.00" arrivalSpeed="14.42" duration="55.00" routeLength="613.10" waitingTime="0.00" waitingCount="0" stopTime="0.00" timeLoss="13.05" rerouteNo="0" devices="tripinfo_SouthBound_48" vType="typeNS" speedFactor="0.88" vaporized=""/>
    <tripinfo id="WestBound_46" depart="159.00" departLane="E-0E_0" departPos="5.10" departSpeed="0.00" departDelay="0.00" arrival="257.00" arrivalLane="0W-W_1" arrivalPos="10.00" arrivalSpeed="16.57" duration="98.00" routeLength="615.10" waitingTime="31.00" waitingCount="1" stopTime="0.00" timeLoss="60.43" rerouteNo="0" devices="tripinfo_WestBound_46" vType="typeWE" speedFactor="1.00" vaporized=""/>
    <tripinfo id="WestBound_42" depart="147.00" departLane="E-0E_0" departPos="5.10" departSpeed="0.00" departDelay="0.00" arrival="258.00" arrivalLane="0W-W_0" arrivalPos="10.00" arrivalSpeed="16.50" duration="111.00" routeLength="615.10" waitingTime="42.00" waitingCount="1" stopTime="0.00" timeLoss="73.48" rerouteNo="0" devices="tripinfo_WestBound_42" vType="typeWE" speedFactor="1.09" vaporized=""/>
    <tripinfo id="EastBound_44" depart="150.00" departLane="W-0W_0" departPos="5.10" departSpeed="0.00" departDelay="0.00" arrival="258.00" arrivalLane="0E-E_0" arrivalPos="10.00" arrivalSpeed="16.27" duration="108.00" routeLength="615.10" waitingTime="41.00" waitingCount="1" stopTime="0.00" timeLoss="70.44" rerouteNo="0" devices="tripinfo_EastBound_44" vType="typeWE" speedFactor="1.04" vaporized=""/>
    <tripinfo id="EastBound_45" depart="155.00" departLane="W-0W_0" departPos="5.10" departSpeed="0.00" departDelay="3.00" arrival="258.00" arrivalLane="0E-E_1" arrivalPos="10.00" arrivalSpeed="16.47" duration="103.00" routeLength="615.10" waitingTime="36.00" waitingCount="1" stopTime="0.00" timeLoss="65.20" rerouteNo="0" devices="tripinfo_EastBound_45" vType="typeWE" speedFactor="1.09" vaporized=""/>
    <tripinfo id="WestBound_53" depart="204.00" departLane="E-0E_0" departPos="5.10" departSpeed="0.00" departDelay="0.00" arrival="259.00" arrivalLane="0W-W_1" arrivalPos="10.00" arrivalSpeed="16.53" duration="55.00" routeLength="615.10" waitingTime="0.00" waitingCount="0" stopTime="0.00" timeLoss="17.26" rerouteNo="0" devices="tripinfo_WestBound_53" vType="typeWE" speedFactor="1.10" vaporized=""/>
    <tripinfo id="EastBound_47" depart="164.00" departLane="W-0W_0" departPos="5.10" departSpeed="0.00" departDelay="0.00" arrival="261.00" arrivalLane="0E-E_0" arrivalPos="10.00" arrivalSpeed="14.86" duration="97.00" routeLength="615.10" waitingTime="27.00" waitingCount="1" stopTime="0.00" timeLoss="55.21" rerouteNo="0" devices="tripinfo_EastBound_47" vType="typeWE" speedFactor="0.90" vaporized=""/>
    <tripinfo id="EastBound_49" depart="171.00" departLane="W-0W_0" departPos="5.10" departSpeed="0.00" departDelay="0.00" arrival="261.00" arrivalLane="0E-E_1" arrivalPos="10.00" arrivalSpeed="14.00" duration="90.00" routeLength="615.10" waitingTime="19.00" waitingCount="1" stopTime="0.00" timeLoss="45.85" rerouteNo="0" devices="tripinfo_EastBound_49" vType="typeWE" speedFactor="0.85" vaporized=""/>
    <tripinfo id="EastBound_51" depart="184.00" departLane="W-0W_0" departPos="5.10" departSpeed="0.00" departDelay="4.00" arrival="262.00" arrivalLane="0E-E_1" arrivalPos="10.00" arrivalSpeed="14.33" duration="78.00" routeLength="615.10" waitingTime="9.00" waitingCount="1" stopTime="0.00" timeLoss="40.96" rerouteNo="0" devices="tripinfo_EastBound_51" vType="typeWE" speedFactor="1.17" vaporized=""/>
    <tripinfo id="EastBound_50" depart="179.00" departLane="W-0W_0" departPos="5.10" departSpeed="0.00" departDelay="0.00" arrival="263.00" arrivalLane="0E-E_0" arrivalPos="10.00" arrivalSpeed="14.00" duration="84.00" routeLength="615.10" waitingTime="15.00" waitingCount="1" stopTime="0.00" timeLoss="40.18" rerouteNo="0" devices="tripinfo_EastBound_50" vType="typeWE" speedFactor="0.85" vaporized=""/>
    <tripinfo id="EastBound_52" depart="189.00" departLane="W-0W_0" departPos="5.10" departSpeed="0.00" departDelay="7.00" arrival="264.00" arrivalLane="0E-E_1" arrivalPos="10.00" arrivalSpeed="15.99" duration="75.00" routeLength="615.10" waitingTime="6.00" waitingCount="1" stopTime="0.00" timeLoss="37.62" rerouteNo="0" devices="tripinfo_EastBound_52" vType="typeWE" speedFactor="1.02" vaporized=""/>
    <tripinfo id="EastBound_56" depart="213.00" departLane="W-0W_0" departPos="5.10" departSpeed="0.00" departDelay="0.00" arrival="267.00" arrivalLane="0E-E_0" arrivalPos="10.00" arrivalSpeed="14.86" duration="54.00" routeLength="615.10" waitingTime="0.00" waitingCount="0" stopTime="0.00" timeLoss="12.11" rerouteNo="0" devices="tripinfo_EastBound_56" vType="typeWE" speedFactor="0.90" vaporized=""/>
    <tripinfo id="EastBound_57" depart="218.00" departLane="W-0W_0" departPos="5.10" departSpeed="0.00" departDelay="2.00" arrival="269.00" arrivalLane="0E-E_0" arrivalPos="10.00" arrivalSpeed="16.54" duration="51.00" routeLength="615.10" waitingTime="0.00" waitingCount="0" stopTime="0.00" timeLoss="13.55" rerouteNo="0" devices="tripinfo_EastBound_57" vType="typeWE" speedFactor="1.14" vaporized=""/>
    <tripinfo id="WestBound_58" depart="218.00" departLane="E-0E_0" departPos="5.10" departSpeed="0.00" departDelay="0.00" arrival="269.00" arrivalLane="0W-W_0" arrivalPos="10.00" arrivalSpeed="16.58" duration="51.00" routeLength="615.10" waitingTime="0.00" waitingCount="0" stopTime="0.00" timeLoss="13.33" rerouteNo="0" devices="tripinfo_WestBound_58" vType="typeWE" speedFactor="1.02" vaporized=""/>
    <tripinfo id="EastBound_60" depart="227.00" departLane="W-0W_0" departPos="5.10" departSpeed="0.00" departDelay="0.00" arrival="278.00" arrivalLane="0E-E_0" arrivalPos="10.00" arrivalSpeed="16.34" duration="51.00" routeLength="615.10" waitingTime="0.00" waitingCount="0" stopTime="0.00" timeLoss="13.97" rerouteNo="0" devices="tripinfo_EastBound_60" vType="typeWE" speedFactor="1.08" vaporized=""/>
    <tripinfo id="WestBound_61" depart="232.00" departLane="E-0E_0" departPos="5.10" departSpeed="0.00" departDelay="0.00" arrival="283.00" arrivalLane="0W-W_0" arrivalPos="10.00" arrivalSpeed="16.62" duration="51.00" routeLength="615.10" waitingTime="0.00" waitingCount="0" stopTime="0.00" timeLoss="13.27" rerouteNo="0" devices="tripinfo_WestBound_61" vType="typeWE" speedFactor="1.12" vaporized=""/>
    <tripinfo id="SouthBound_54" depart="206.00" departLane="N-0N_0" departPos="7.10" departSpeed="0.00" departDelay="0.00" arrival="302.00" arrivalLane="0S-S_0" arrivalPos="10.00" arrivalSpeed="16.32" duration="96.00" routeLength="613.10" waitingTime="30.00" waitingCount="1" stopTime="0.00" timeLoss="58.92" rerouteNo="0" devices="tripinfo_SouthBound_54" vType="typeNS" speedFactor="1.00" vaporized=""/>
    <tripinfo id="NorthBound_55" depart="212.00" departLane="S-0S_0" departPos="7.10" departSpeed="0.00" departDelay="0.00" arrival="302.00" arrivalLane="0N-N_0" arrivalPos="10.00" arrivalSpeed="16.25" duration="90.00" routeLength="613.10" waitingTime="25.00" waitingCount="1" stopTime="0.00" timeLoss="52.24" rerouteNo="0" devices="tripinfo_NorthBound_55" vType="typeNS" speedFactor="1.00" vaporized=""/>
    <tripinfo id="NorthBound_65" depart="248.00" departLane="S-0S_0" departPos="7.10" departSpeed="0.00" departDelay="0.00" arrival="303.00" arrivalLane="0N-N_1" arrivalPos="10.00" arrivalSpeed="14.69" duration="55.00" routeLength="613.10" waitingTime="0.00" waitingCount="0" stopTime="0.00" timeLoss="12.67" rerouteNo="0" devices="tripinfo_NorthBound_65" vType="typeNS" speedFactor="0.88" vaporized=""/>
    <tripinfo id="SouthBound_59" depart="220.00" departLane="N-0N_0" departPos="7.10" departSpeed="0.00" departDelay="0.00" arrival="304.00" arrivalLane="0S-S_1" arrivalPos="10.00" arrivalSpeed="15.97" duration="84.00" routeLength="613.10" waitingTime="15.00" waitingCount="1" stopTime="0.00" timeLoss="45.84" rerouteNo="0" devices="tripinfo_SouthBound_59" vType="typeNS" speedFactor="0.97" vaporized=""/>
    <tripinfo id="SouthBound_63" depart="241.00" departLane="N-0N_0" departPos="7.10" departSpeed="0.00" departDelay="0.00" arrival="304.00" arrivalLane="0S-S_0" arrivalPos="10.00" arrivalSpeed="16.14" duration="63.00" routeLength="613.10" waitingTime="0.00" waitingCount="0" stopTime="0.00" timeLoss="25.05" rerouteNo="0" devices="tripinfo_SouthBound_63" vType="typeNS" speedFactor="0.99" vaporized=""/>
    <tripinfo id="SouthBound_68" depart="256.00" departLane="N-0N_0" departPos="7.10" departSpeed="0.00" departDelay="0.00" arrival="307.00" arrivalLane="0S-S_1" arrivalPos="10.00" arrivalSpeed="17.07" duration="51.00" routeLength="613.10" waitingTime="0.00" waitingCount="0" stopTime="0.00" timeLoss="14.79" rerouteNo="0" devices="tripinfo_SouthBound_68" vType="typeNS" speedFactor="1.04" vaporized=""/>
    <tripinfo id="SouthBound_70" depart="262.00" departLane="N-0N_0" departPos="7.10" departSpeed="0.00" departDelay="4.00" arrival="311.00" arrivalLane="0S-S_0" arrivalPos="10.00" arrivalSpeed="16.66" duration="49.00" routeLength="613.10" waitingTime="0.00" waitingCount="0" stopTime="0.00" timeLoss="12.55" rerouteNo="0" devices="tripinfo_SouthBound_70" vType="typeNS" speedFactor="1.02" vaporized=""/>
